 Q-Chem 4.4, Q-Chem, Inc., Pleasanton, CA (2016)
 Q-Chem 4.4.1 for Intel X86 EM64T Linux

User input:
--------------------------------------------------------------
$molecule
-1 2
Ni -0.5482305661 1.5882840930 -0.2106967797
N -1.8670750751 2.8488877135 0.0622612570
N -1.9742513189 0.4186033400 -0.3235090267
N 0.8936820816 2.7545931760 -0.0051326344
N 0.7751523133 0.3124476420 -0.4216385255
C -3.1351899907 2.3809900771 0.1127352195
H -1.7383161647 3.8343269324 0.2818528002
C -3.1993847001 0.9588631649 -0.1398666428
H -1.9377912136 -0.5795552732 -0.5167793298
C -4.4589172935 0.3104189163 -0.1581288853
C -5.6128681350 1.0473452515 0.0814762017
C -5.5481082718 2.4402918268 0.3420845397
C -4.3276510008 3.1046138459 0.3587031479
C 2.0672791257 2.1981273566 0.0088942300
H 0.9534212616 3.7713638852 0.1858557306
C 2.0397639418 0.7433908529 -0.1560855627
H 0.6396627708 -0.6949205415 -0.3736298094
C 3.2165039071 0.0418607614 0.0297794362
C 4.4354838179 0.7335444433 0.3932530764
C 4.5216578971 2.0804056966 0.5330082523
C 3.3531144019 2.9732420196 0.2133696310
H -4.2744375300 4.1738834508 0.5537539420
H -6.5798492216 0.5501004054 0.0713176299
H -6.4655777156 2.9933016789 0.5279378279
H -4.5083882592 -0.7588607770 -0.3539561635
H 3.2227622057 -1.0435058832 -0.0368855841
H 5.3207624000 0.1237068815 0.5639679812
H 5.4553672299 2.5692054622 0.7970896494
H 3.5694091593 3.4832118753 -0.7486411134
O 3.2156842207 3.9716725488 1.2119272491
O 2.2955797219 5.0225291771 0.6949622552
$end

$rem
method b3lyp
basis 6-31+g*
thresh 12
mem_total 4096
mem_static 512
unrestricted true
jobtype freq
cpscf_nseg 4
mem_total 2048
mem_static 256
solvent_method pcm
$end

$pcm
theory cpcm
method swig
solver inversion
heavypoints 194
hpoints 194
radii bondi
vdwscale 1.2
$end

$solvent
dielectric 78.39
$end

$van_der_waals
1
28  1.63
$end
--------------------------------------------------------------

             Standard Nuclear Orientation (Angstroms)
    I     Atom           X                Y                Z
 ----------------------------------------------------------------
    1      Ni     -0.5482305661     1.5882840930    -0.2106967797
    2      N      -1.8670750751     2.8488877135     0.0622612570
    3      N      -1.9742513189     0.4186033400    -0.3235090267
    4      N       0.8936820816     2.7545931760    -0.0051326344
    5      N       0.7751523133     0.3124476420    -0.4216385255
    6      C      -3.1351899907     2.3809900771     0.1127352195
    7      H      -1.7383161647     3.8343269324     0.2818528002
    8      C      -3.1993847001     0.9588631649    -0.1398666428
    9      H      -1.9377912136    -0.5795552732    -0.5167793298
   10      C      -4.4589172935     0.3104189163    -0.1581288853
   11      C      -5.6128681350     1.0473452515     0.0814762017
   12      C      -5.5481082718     2.4402918268     0.3420845397
   13      C      -4.3276510008     3.1046138459     0.3587031479
   14      C       2.0672791257     2.1981273566     0.0088942300
   15      H       0.9534212616     3.7713638852     0.1858557306
   16      C       2.0397639418     0.7433908529    -0.1560855627
   17      H       0.6396627708    -0.6949205415    -0.3736298094
   18      C       3.2165039071     0.0418607614     0.0297794362
   19      C       4.4354838179     0.7335444433     0.3932530764
   20      C       4.5216578971     2.0804056966     0.5330082523
   21      C       3.3531144019     2.9732420196     0.2133696310
   22      H      -4.2744375300     4.1738834508     0.5537539420
   23      H      -6.5798492216     0.5501004054     0.0713176299
   24      H      -6.4655777156     2.9933016789     0.5279378279
   25      H      -4.5083882592    -0.7588607770    -0.3539561635
   26      H       3.2227622057    -1.0435058832    -0.0368855841
   27      H       5.3207624000     0.1237068815     0.5639679812
   28      H       5.4553672299     2.5692054622     0.7970896494
   29      H       3.5694091593     3.4832118753    -0.7486411134
   30      O       3.2156842207     3.9716725488     1.2119272491
   31      O       2.2955797219     5.0225291771     0.6949622552
 ----------------------------------------------------------------

   23   -2342.2312950801      8.91E-09 Convergence criterion met
 Total energy in the final basis set = -2342.2312950801

                    Orbital Energies (a.u.)
 --------------------------------------------------------------

 Alpha MOs
 -- Occupied --
******* -35.831 -31.272 -31.263 -31.239 -19.172 -19.102 -14.351
-14.335 -14.333 -14.324 -10.246 -10.245 -10.228 -10.222 -10.221
-10.197 -10.191 -10.189 -10.189 -10.188 -10.187 -10.186  -4.031
 -2.641  -2.623  -2.585  -1.040  -0.943  -0.930  -0.874  -0.867
 -0.833  -0.823  -0.791  -0.731  -0.714  -0.700  -0.693  -0.623
 -0.616  -0.581  -0.576  -0.525  -0.519  -0.503  -0.493  -0.488
 -0.474  -0.465  -0.441  -0.437  -0.429  -0.424  -0.410  -0.408
 -0.403  -0.392  -0.388  -0.369  -0.361  -0.347  -0.340  -0.332
 -0.326  -0.324  -0.323  -0.319  -0.309  -0.293  -0.289  -0.263
 -0.248  -0.235  -0.216  -0.212  -0.194  -0.186  -0.165

 Beta MOs
 -- Occupied --
******* -35.826 -31.266 -31.261 -31.233 -19.172 -19.102 -14.352
-14.331 -14.329 -14.323 -10.245 -10.245 -10.229 -10.222 -10.221
-10.198 -10.189 -10.188 -10.187 -10.187 -10.187 -10.186  -4.020
 -2.626  -2.618  -2.569  -1.040  -0.943  -0.924  -0.873  -0.859
 -0.832  -0.819  -0.790  -0.729  -0.711  -0.696  -0.691  -0.622
 -0.614  -0.580  -0.574  -0.524  -0.517  -0.502  -0.492  -0.486
 -0.472  -0.464  -0.441  -0.436  -0.428  -0.423  -0.408  -0.402
 -0.396  -0.391  -0.387  -0.368  -0.359  -0.346  -0.337  -0.329
 -0.321  -0.319  -0.315  -0.308  -0.303  -0.288  -0.283  -0.242
 -0.231  -0.231  -0.215  -0.199  -0.187  -0.177

          Ground-State Mulliken Net Atomic Charges

     Atom                 Charge (a.u.)    Spin (a.u.)
  --------------------------------------------------------
      1 Ni                    0.348396       0.159696
      2 N                    -0.776496       0.242352
      3 N                    -0.815150       0.209464
      4 N                    -0.591850      -0.048147
      5 N                    -0.794794       0.011965
      6 C                     0.966315       0.019511
      7 H                     0.429834      -0.011300
      8 C                     1.033361       0.038338
      9 H                     0.430311      -0.009721
     10 C                    -0.961218       0.023294
     11 C                    -0.267262       0.078565
     12 C                    -0.274192       0.055648
     13 C                    -0.886676       0.045663
     14 C                     0.963920       0.015699
     15 H                     0.474692       0.001355
     16 C                     1.376931      -0.103063
     17 H                     0.414420      -0.001818
     18 C                    -1.395729       0.248023
     19 C                    -0.231409      -0.100248
     20 C                    -0.265136       0.171111
     21 C                    -0.810284      -0.034086
     22 H                     0.201139      -0.002903
     23 H                     0.197424      -0.004406
     24 H                     0.197216      -0.003375
     25 H                     0.200427      -0.002008
     26 H                     0.206027      -0.010167
     27 H                     0.200824       0.003174
     28 H                     0.204966      -0.007702
     29 H                     0.226900       0.010100
     30 O                    -0.231194       0.003538
     31 O                    -0.771714       0.001446
  --------------------------------------------------------
  Sum of atomic charges =    -1.000000

                    Cartesian Multipole Moments
 -----------------------------------------------------------------
    Charge (ESU x 10^10)
                -4.8032
    Dipole Moment (Debye)
         X      -6.9395      Y     -21.2855      Z      -3.7135
       Tot      22.6940
    Quadrupole Moments (Debye-Ang)
        XX    -149.5417     XY     -45.4361     YY    -207.5959
        XZ     -11.9411     YZ     -16.7745     ZZ    -135.7004

 Frequency:     -1119.44                -350.80                 -98.89
 Force Cnst:      6.1738                 0.4803                 0.0367
 Red. Mass:       8.3618                 6.6249                 6.3723
 IR Intens:      231.905                  6.879                  7.697
 Frequency:       -79.56                 -51.99                  54.72
 Force Cnst:      0.0376                 0.0124                 0.0100
 Red. Mass:      10.0726                 7.7825                 5.6489
 IR Intens:       29.718                  5.505                  1.035
 Frequency:        80.78                 103.15                 134.31
 Force Cnst:      0.0222                 0.0547                 0.0652
 Red. Mass:       5.7717                 8.7329                 6.1315
 IR Intens:       19.223                  8.366                  2.768
 Frequency:       180.30                 210.26                 233.12
 Force Cnst:      0.1230                 0.1970                 0.1897
 Red. Mass:       6.4203                 7.5629                 5.9248
 IR Intens:        9.430                 17.166                  8.582
 Frequency:       255.67                 283.94                 310.93
 Force Cnst:      0.2582                 0.3228                 0.3303
 Red. Mass:       6.7038                 6.7954                 5.7986
 IR Intens:       13.210                 70.688                 19.362
 Frequency:       339.07                 353.51                 388.55
 Force Cnst:      0.5288                 0.5557                 0.3549
 Red. Mass:       7.8060                 7.5472                 3.9899
 IR Intens:       19.800                 34.078                 14.999
 Frequency:       411.85                 427.32                 440.32
 Force Cnst:      0.6625                 0.1994                 0.2973
 Red. Mass:       6.6294                 1.8532                 2.6030
 IR Intens:      104.257                  5.703                 44.573
 Frequency:       449.55                 480.01                 500.69
 Force Cnst:      0.4339                 0.6386                 0.6600
 Red. Mass:       3.6439                 4.7043                 4.4684
 IR Intens:       22.488                 57.289                 18.457
 Frequency:       531.03                 547.59                 566.23
 Force Cnst:      0.2738                 0.4754                 0.4045
 Red. Mass:       1.6479                 2.6909                 2.1415
 IR Intens:      126.282                150.875                309.157
 Frequency:       577.92                 605.44                 616.01
 Force Cnst:      0.4306                 0.9460                 0.6656
 Red. Mass:       2.1883                 4.3801                 2.9769
 IR Intens:       33.081                195.520                 24.164
 Frequency:       637.59                 646.00                 686.66
 Force Cnst:      0.9894                 0.6410                 1.1989
 Red. Mass:       4.1310                 2.6071                 4.3155
 IR Intens:      235.406                108.954                 37.664
 Frequency:       706.49                 713.08                 716.78
 Force Cnst:      1.1495                 0.6810                 0.7096
 Red. Mass:       3.9088                 2.2732                 2.3443
 IR Intens:       12.005                 42.183                 95.518
 Frequency:       772.50                 783.69                 807.25
 Force Cnst:      1.1795                 0.5163                 1.0316
 Red. Mass:       3.3547                 1.4267                 2.6869
 IR Intens:       61.249                134.698                239.493
 Frequency:       825.08                 845.84                 849.94
 Force Cnst:      2.1887                 1.2814                 0.7662
 Red. Mass:       5.4569                 3.0399                 1.8002
 IR Intens:       25.481                 33.352                 12.086
 Frequency:       871.65                 876.07                 938.96
 Force Cnst:      2.0202                 0.9075                 1.3683
 Red. Mass:       4.5130                 2.0069                 2.6341
 IR Intens:        6.790                  4.030                 49.083
 Frequency:       941.52                 954.12                 973.86
 Force Cnst:      0.7403                 0.6810                 0.9622
 Red. Mass:       1.4174                 1.2696                 1.7220
 IR Intens:        7.426                 99.525                 15.489
 Frequency:       973.97                1004.04                1022.79
 Force Cnst:      0.7544                 0.9818                 1.4443
 Red. Mass:       1.3499                 1.6529                 2.3433
 IR Intens:        3.678                  4.388                128.199
 Frequency:      1062.17                1109.35                1123.02
 Force Cnst:      2.8246                 1.6170                 1.2528
 Red. Mass:       4.2493                 2.2301                 1.6860
 IR Intens:      138.739                 16.863                 36.918
 Frequency:      1173.68                1186.12                1201.31
 Force Cnst:      1.1853                 1.0411                 1.1895
 Red. Mass:       1.4604                 1.2560                 1.3989
 IR Intens:      193.102                345.879                 57.956
 Frequency:      1218.83                1246.04                1268.06
 Force Cnst:      1.2686                 2.4225                 1.5640
 Red. Mass:       1.4494                 2.6482                 1.6508
 IR Intens:      173.802                375.946                210.045
 Frequency:      1284.90                1298.86                1313.85
 Force Cnst:      1.6153                 2.8794                 1.4139
 Red. Mass:       1.6606                 2.8968                 1.3902
 IR Intens:      236.835                 30.941                 20.791
 Frequency:      1369.56                1375.93                1384.88
 Force Cnst:      1.5010                 1.6586                 1.5441
 Red. Mass:       1.3582                 1.4870                 1.3665
 IR Intens:       49.333                113.326                 20.747
 Frequency:      1406.98                1419.49                1424.41
 Force Cnst:      3.0595                 2.5106                 1.9890
 Red. Mass:       2.6231                 2.1148                 1.6638
 IR Intens:     1504.932                726.443                116.636
 Frequency:      1477.34                1507.19                1519.66
 Force Cnst:      3.2869                 5.7106                 4.3146
 Red. Mass:       2.5561                 4.2667                 3.1710
 IR Intens:       39.374                125.522                 15.592
 Frequency:      1542.32                1558.96                1626.26
 Force Cnst:      7.3756                 7.2980                 7.7767
 Red. Mass:       5.2626                 5.0966                 4.9907
 IR Intens:      232.487                 96.301                197.611
 Frequency:      2829.58                3087.65                3112.48
 Force Cnst:      5.0696                 6.3410                 6.3661
 Red. Mass:       1.0747                 1.1289                 1.1153
 IR Intens:       67.774                 45.073                235.735
 Frequency:      3126.48                3131.51                3133.75
 Force Cnst:      6.3300                 6.3352                 6.3333
 Red. Mass:       1.0991                 1.0965                 1.0946
 IR Intens:       32.731                 17.388                 18.562
 Frequency:      3137.95                3143.20                3212.50
 Force Cnst:      6.3733                 6.4045                 6.5948
 Red. Mass:       1.0986                 1.1002                 1.0846
 IR Intens:       24.454                 13.238                611.040
 Frequency:      3469.11                3485.24                3497.60
 Force Cnst:      7.6851                 7.7210                 7.7753
 Red. Mass:       1.0838                 1.0788                 1.0788
 IR Intens:       26.929                 66.307                 34.943

 STANDARD THERMODYNAMIC QUANTITIES AT   298.15 K  AND     1.00 ATM

   This Molecule has  5 Imaginary Frequencies
   Zero point vibrational energy:      138.806 kcal/mol

   Atom    1 Element Ni Has Mass   57.93530
   Atom    2 Element N  Has Mass   14.00307
   Atom    3 Element N  Has Mass   14.00307
   Atom    4 Element N  Has Mass   14.00307
   Atom    5 Element N  Has Mass   14.00307
   Atom    6 Element C  Has Mass   12.00000
   Atom    7 Element H  Has Mass    1.00783
   Atom    8 Element C  Has Mass   12.00000
   Atom    9 Element H  Has Mass    1.00783
   Atom   10 Element C  Has Mass   12.00000
   Atom   11 Element C  Has Mass   12.00000
   Atom   12 Element C  Has Mass   12.00000
   Atom   13 Element C  Has Mass   12.00000
   Atom   14 Element C  Has Mass   12.00000
   Atom   15 Element H  Has Mass    1.00783
   Atom   16 Element C  Has Mass   12.00000
   Atom   17 Element H  Has Mass    1.00783
   Atom   18 Element C  Has Mass   12.00000
   Atom   19 Element C  Has Mass   12.00000
   Atom   20 Element C  Has Mass   12.00000
   Atom   21 Element C  Has Mass   12.00000
   Atom   22 Element H  Has Mass    1.00783
   Atom   23 Element H  Has Mass    1.00783
   Atom   24 Element H  Has Mass    1.00783
   Atom   25 Element H  Has Mass    1.00783
   Atom   26 Element H  Has Mass    1.00783
   Atom   27 Element H  Has Mass    1.00783
   Atom   28 Element H  Has Mass    1.00783
   Atom   29 Element H  Has Mass    1.00783
   Atom   30 Element O  Has Mass   15.99491
   Atom   31 Element O  Has Mass   15.99491
   Molecular Mass:   302.031360 amu
   Principal axes and moments of inertia in amu*Bohr^2:
                             1           2           3
    Eigenvalues --     1990.53920 10460.26851 12301.52172
          X               0.99538    -0.09195    -0.02774
          Y               0.08444     0.97544    -0.20345
          Z               0.04577     0.20017     0.97869
   Rotational Symmetry Number is   1
   The Molecule is an Asymmetric Top
   Translational Enthalpy:        0.889 kcal/mol
   Rotational Enthalpy:           0.889 kcal/mol
   Vibrational Enthalpy:        146.027 kcal/mol
   gas constant (RT):             0.592 kcal/mol
   Translational Entropy:        43.013  cal/mol.K
   Rotational Entropy:           33.904  cal/mol.K
   Vibrational Entropy:          41.587  cal/mol.K

   Total Enthalpy:              148.397 kcal/mol
   Total Entropy:               118.503  cal/mol.K

 Total job time:  64022.51s(wall), 64968.60s(cpu)
        *  Thank you very much for using Q-Chem.  Have a nice day.  *
