 Q-Chem 4.4, Q-Chem, Inc., Pleasanton, CA (2016)
 Q-Chem 4.4.1 for Intel X86 EM64T Linux

User input:
--------------------------------------------------------------
$molecule
0 1
Ni -0.5465695350 1.5994385350 -0.2089247648
N -1.8727055427 2.8464458669 0.0702377185
N -1.9747099646 0.4272987421 -0.3388563453
N 0.8827476930 2.7719520196 0.0100860920
N 0.7501340409 0.3320418026 -0.3907056028
C -3.1107853054 2.3887151803 0.1192144393
H -1.7425737784 3.8369503502 0.2773036211
C -3.1732173852 0.9477493734 -0.1527696430
H -1.9299384417 -0.5716818699 -0.5390107251
C -4.4440106120 0.2856800021 -0.1742195608
C -5.5692228652 1.0246244873 0.0728544685
C -5.5065865663 2.4410588644 0.3508579937
C -4.3170647331 3.1169375302 0.3783708663
C 2.0533343638 2.2113059456 0.0249405327
H 0.9449820165 3.7925018634 0.1981733101
C 2.0201871718 0.7621324422 -0.1417885037
H 0.6067519332 -0.6755011648 -0.3761954330
C 3.1872992455 0.0506112133 0.0406613931
C 4.4175318167 0.7250944697 0.3950485141
C 4.5057981835 2.0707053346 0.5379589615
C 3.3453840471 2.9706221452 0.2163139321
H -4.2652162743 4.1823918964 0.5843455344
H -6.5429266886 0.5429304489 0.0646640069
H -6.4350426588 2.9723679150 0.5393511445
H -4.4893818359 -0.7800524879 -0.3800345912
H 3.1804411782 -1.0343167375 -0.0292745719
H 5.2963933557 0.1071831746 0.5618814513
H 5.4394920917 2.5549380710 0.8093647956
H 3.5714468532 3.4388801991 -0.7664009683
O 3.2263100269 3.9943772545 1.1826052359
O 2.2909681694 5.0189871326 0.6432266984
$end

$rem
method b3lyp
basis 6-31+g*
thresh 12
mem_total 4096
mem_static 512
jobtype freq
cpscf_nseg 4
mem_total 2048
mem_static 256
solvent_method pcm
$end

$pcm
theory cpcm
method swig
solver inversion
heavypoints 194
hpoints 194
radii bondi
vdwscale 1.2
$end

$solvent
dielectric 78.39
$end

$van_der_waals
1
28  1.63
$end
--------------------------------------------------------------

             Standard Nuclear Orientation (Angstroms)
    I     Atom           X                Y                Z
 ----------------------------------------------------------------
    1      Ni     -0.5465695350     1.5994385350    -0.2089247648
    2      N      -1.8727055427     2.8464458669     0.0702377185
    3      N      -1.9747099646     0.4272987421    -0.3388563453
    4      N       0.8827476930     2.7719520196     0.0100860920
    5      N       0.7501340409     0.3320418026    -0.3907056028
    6      C      -3.1107853054     2.3887151803     0.1192144393
    7      H      -1.7425737784     3.8369503502     0.2773036211
    8      C      -3.1732173852     0.9477493734    -0.1527696430
    9      H      -1.9299384417    -0.5716818699    -0.5390107251
   10      C      -4.4440106120     0.2856800021    -0.1742195608
   11      C      -5.5692228652     1.0246244873     0.0728544685
   12      C      -5.5065865663     2.4410588644     0.3508579937
   13      C      -4.3170647331     3.1169375302     0.3783708663
   14      C       2.0533343638     2.2113059456     0.0249405327
   15      H       0.9449820165     3.7925018634     0.1981733101
   16      C       2.0201871718     0.7621324422    -0.1417885037
   17      H       0.6067519332    -0.6755011648    -0.3761954330
   18      C       3.1872992455     0.0506112133     0.0406613931
   19      C       4.4175318167     0.7250944697     0.3950485141
   20      C       4.5057981835     2.0707053346     0.5379589615
   21      C       3.3453840471     2.9706221452     0.2163139321
   22      H      -4.2652162743     4.1823918964     0.5843455344
   23      H      -6.5429266886     0.5429304489     0.0646640069
   24      H      -6.4350426588     2.9723679150     0.5393511445
   25      H      -4.4893818359    -0.7800524879    -0.3800345912
   26      H       3.1804411782    -1.0343167375    -0.0292745719
   27      H       5.2963933557     0.1071831746     0.5618814513
   28      H       5.4394920917     2.5549380710     0.8093647956
   29      H       3.5714468532     3.4388801991    -0.7664009683
   30      O       3.2263100269     3.9943772545     1.1826052359
   31      O       2.2909681694     5.0189871326     0.6432266984
 ----------------------------------------------------------------

   20   -2342.0781357861      7.94E-09 Convergence criterion met
 Total energy in the final basis set = -2342.0781357861

                    Orbital Energies (a.u.)
 --------------------------------------------------------------

 Alpha MOs
 -- Occupied --
******* -35.862 -31.304 -31.295 -31.270 -19.180 -19.109 -14.381
-14.379 -14.365 -14.348 -10.266 -10.265 -10.260 -10.256 -10.244
-10.222 -10.221 -10.217 -10.216 -10.216 -10.210 -10.208  -4.058
 -2.668  -2.652  -2.610  -1.050  -0.977  -0.958  -0.914  -0.891
 -0.854  -0.846  -0.803  -0.764  -0.730  -0.723  -0.708  -0.649
 -0.637  -0.609  -0.594  -0.552  -0.536  -0.532  -0.520  -0.512
 -0.496  -0.478  -0.462  -0.458  -0.452  -0.446  -0.439  -0.438
 -0.426  -0.411  -0.405  -0.392  -0.383  -0.370  -0.363  -0.357
 -0.346  -0.345  -0.342  -0.333  -0.324  -0.320  -0.306  -0.274
 -0.268  -0.263  -0.239  -0.221  -0.201  -0.193

          Ground-State Mulliken Net Atomic Charges

     Atom                 Charge (a.u.)
  ----------------------------------------
      1 Ni                    0.511964
      2 N                    -0.635177
      3 N                    -0.652989
      4 N                    -0.582267
      5 N                    -0.768674
      6 C                     2.015176
      7 H                     0.468121
      8 C                     1.981288
      9 H                     0.469276
     10 C                    -1.859907
     11 C                    -0.348891
     12 C                    -0.361634
     13 C                    -1.768596
     14 C                     1.003126
     15 H                     0.482887
     16 C                     1.455700
     17 H                     0.437278
     18 C                    -1.453063
     19 C                    -0.242550
     20 C                    -0.209354
     21 C                    -0.814191
     22 H                     0.237337
     23 H                     0.228769
     24 H                     0.228388
     25 H                     0.236785
     26 H                     0.228204
     27 H                     0.216584
     28 H                     0.222923
     29 H                     0.246556
     30 O                    -0.223649
     31 O                    -0.749420
  ----------------------------------------
  Sum of atomic charges =     0.000000

                    Cartesian Multipole Moments
 -----------------------------------------------------------------
    Charge (ESU x 10^10)
                 0.0000
    Dipole Moment (Debye)
         X     -14.2774      Y     -13.7910      Z      -3.4664
       Tot      20.1507
    Quadrupole Moments (Debye-Ang)
        XX     -82.0843     XY     -58.7558     YY    -182.0184
        XZ     -11.1184     YZ     -14.0340     ZZ    -128.8223

 Frequency:       -53.94                  29.80                  42.76
 Force Cnst:      0.0167                 0.0035                 0.0055
 Red. Mass:       9.7303                 6.6109                 5.0592
 IR Intens:       32.856                  7.322                  7.480
 Frequency:        91.07                 114.22                 145.43
 Force Cnst:      0.0262                 0.0511                 0.1003
 Red. Mass:       5.3555                 6.6474                 8.0503
 IR Intens:        4.558                  0.959                 18.957
 Frequency:       163.11                 205.36                 218.27
 Force Cnst:      0.1114                 0.1294                 0.1786
 Red. Mass:       7.1089                 5.2094                 6.3627
 IR Intens:       11.433                  5.514                 11.126
 Frequency:       222.14                 249.74                 305.25
 Force Cnst:      0.1676                 0.2621                 0.2868
 Red. Mass:       5.7644                 7.1319                 5.2243
 IR Intens:        1.349                 28.161                 36.888
 Frequency:       308.37                 360.49                 369.51
 Force Cnst:      0.3132                 0.6347                 0.4731
 Red. Mass:       5.5894                 8.2890                 5.8809
 IR Intens:       39.149                 12.544                 13.431
 Frequency:       393.66                 443.96                 459.71
 Force Cnst:      0.4109                 0.7837                 0.3195
 Red. Mass:       4.5006                 6.7486                 2.5659
 IR Intens:       41.778                 45.508                 48.707
 Frequency:       468.21                 479.36                 493.65
 Force Cnst:      0.4411                 0.5732                 0.7340
 Red. Mass:       3.4155                 4.2337                 5.1122
 IR Intens:       19.623                 10.015                 49.099
 Frequency:       521.76                 534.03                 558.07
 Force Cnst:      0.6428                 0.7809                 0.3312
 Red. Mass:       4.0075                 4.6477                 1.8052
 IR Intens:      152.939                 80.875                197.106
 Frequency:       565.44                 585.02                 636.04
 Force Cnst:      1.0065                 1.3617                 0.6486
 Red. Mass:       5.3431                 6.7527                 2.7211
 IR Intens:        7.111                152.025                 27.801
 Frequency:       646.37                 651.50                 664.09
 Force Cnst:      1.0534                 0.5430                 0.7613
 Red. Mass:       4.2794                 2.1711                 2.9300
 IR Intens:       22.486                246.643                195.486
 Frequency:       684.29                 701.36                 705.48
 Force Cnst:      0.6220                 0.6230                 0.4423
 Red. Mass:       2.2546                 2.1495                 1.5083
 IR Intens:       44.565                 36.984                 78.425
 Frequency:       736.05                 751.32                 785.10
 Force Cnst:      0.5466                 1.3699                 0.5206
 Red. Mass:       1.7124                 4.1188                 1.4334
 IR Intens:       17.905                 13.941                333.103
 Frequency:       795.84                 812.34                 846.18
 Force Cnst:      1.4931                 1.8538                 0.5956
 Red. Mass:       4.0013                 4.7679                 1.4118
 IR Intens:        9.991                 42.178                  2.893
 Frequency:       863.58                 868.60                 897.89
 Force Cnst:      1.7722                 3.3001                 0.7507
 Red. Mass:       4.0333                 7.4239                 1.5804
 IR Intens:       78.827                 79.968                 16.789
 Frequency:       903.80                 940.37                 975.65
 Force Cnst:      2.7253                 0.6382                 0.7335
 Red. Mass:       5.6625                 1.2250                 1.3078
 IR Intens:        0.940                 74.238                  2.281
 Frequency:       988.92                1001.68                1003.87
 Force Cnst:      0.7427                 1.4268                 0.7833
 Red. Mass:       1.2890                 2.4135                 1.3193
 IR Intens:        2.742                 31.272                  0.292
 Frequency:      1009.26                1039.84                1081.63
 Force Cnst:      1.6987                 1.5588                 2.3584
 Red. Mass:       2.8305                 2.4469                 3.4214
 IR Intens:       93.710                105.694                 44.207
 Frequency:      1152.75                1167.06                1181.92
 Force Cnst:      1.4315                 1.2941                 0.9215
 Red. Mass:       1.8283                 1.6127                 1.1196
 IR Intens:       25.768                 70.226                406.493
 Frequency:      1188.40                1216.21                1257.76
 Force Cnst:      1.0360                 1.1661                 1.3120
 Red. Mass:       1.2451                 1.3380                 1.4076
 IR Intens:       26.646                 10.771                357.096
 Frequency:      1258.64                1285.19                1316.13
 Force Cnst:      1.3258                 1.2775                 2.1283
 Red. Mass:       1.4205                 1.3127                 2.0854
 IR Intens:      201.868                 66.282                 24.039
 Frequency:      1336.64                1370.85                1389.27
 Force Cnst:      2.3517                 1.6479                 1.6973
 Red. Mass:       2.2341                 1.4883                 1.4925
 IR Intens:      260.427                  8.699                102.325
 Frequency:      1403.88                1429.73                1438.95
 Force Cnst:      1.9256                 3.2154                 2.2333
 Red. Mass:       1.6582                 2.6697                 1.8307
 IR Intens:        2.546               2343.295                  5.363
 Frequency:      1466.69                1490.60                1493.72
 Force Cnst:      5.7291                 3.2446                 3.7633
 Red. Mass:       4.5202                 2.4785                 2.8628
 IR Intens:        3.242               1533.797                944.626
 Frequency:      1552.24                1572.86                1582.67
 Force Cnst:      9.9561                 7.6290                 8.6401
 Red. Mass:       7.0133                 5.2341                 5.8545
 IR Intens:       19.124                272.395                 38.098
 Frequency:      1623.04                1653.24                1662.63
 Force Cnst:     14.8387                 8.6637                 9.3964
 Red. Mass:       9.5607                 5.3800                 5.7692
 IR Intens:      314.752                 27.316                 29.803
 Frequency:      2887.34                3184.19                3195.53
 Force Cnst:      5.2837                 6.4444                 6.5405
 Red. Mass:       1.0757                 1.0788                 1.0871
 IR Intens:       42.311                841.493                 50.276
 Frequency:      3206.35                3206.79                3210.11
 Force Cnst:      6.6019                 6.5875                 6.6115
 Red. Mass:       1.0899                 1.0873                 1.0889
 IR Intens:       36.678                  0.026                  8.858
 Frequency:      3220.37                3222.42                3229.31
 Force Cnst:      6.6893                 6.6969                 6.7355
 Red. Mass:       1.0948                 1.0946                 1.0962
 IR Intens:       11.496                 47.542                 54.365
 Frequency:      3529.10                3534.42                3551.62
 Force Cnst:      7.9037                 7.9294                 8.0002
 Red. Mass:       1.0771                 1.0773                 1.0765
 IR Intens:      142.996                 99.828                 90.157

 STANDARD THERMODYNAMIC QUANTITIES AT   298.15 K  AND     1.00 ATM

   This Molecule has  1 Imaginary Frequencies
   Zero point vibrational energy:      145.799 kcal/mol

   Atom    1 Element Ni Has Mass   57.93530
   Atom    2 Element N  Has Mass   14.00307
   Atom    3 Element N  Has Mass   14.00307
   Atom    4 Element N  Has Mass   14.00307
   Atom    5 Element N  Has Mass   14.00307
   Atom    6 Element C  Has Mass   12.00000
   Atom    7 Element H  Has Mass    1.00783
   Atom    8 Element C  Has Mass   12.00000
   Atom    9 Element H  Has Mass    1.00783
   Atom   10 Element C  Has Mass   12.00000
   Atom   11 Element C  Has Mass   12.00000
   Atom   12 Element C  Has Mass   12.00000
   Atom   13 Element C  Has Mass   12.00000
   Atom   14 Element C  Has Mass   12.00000
   Atom   15 Element H  Has Mass    1.00783
   Atom   16 Element C  Has Mass   12.00000
   Atom   17 Element H  Has Mass    1.00783
   Atom   18 Element C  Has Mass   12.00000
   Atom   19 Element C  Has Mass   12.00000
   Atom   20 Element C  Has Mass   12.00000
   Atom   21 Element C  Has Mass   12.00000
   Atom   22 Element H  Has Mass    1.00783
   Atom   23 Element H  Has Mass    1.00783
   Atom   24 Element H  Has Mass    1.00783
   Atom   25 Element H  Has Mass    1.00783
   Atom   26 Element H  Has Mass    1.00783
   Atom   27 Element H  Has Mass    1.00783
   Atom   28 Element H  Has Mass    1.00783
   Atom   29 Element H  Has Mass    1.00783
   Atom   30 Element O  Has Mass   15.99491
   Atom   31 Element O  Has Mass   15.99491
   Molecular Mass:   302.031360 amu
   Principal axes and moments of inertia in amu*Bohr^2:
                             1           2           3
    Eigenvalues --     1984.90798 10363.00912 12202.55527
          X               0.99512    -0.09463    -0.02794
          Y               0.08732     0.97649    -0.19708
          Z               0.04593     0.19368     0.97999
   Rotational Symmetry Number is   1
   The Molecule is an Asymmetric Top
   Translational Enthalpy:        0.889 kcal/mol
   Rotational Enthalpy:           0.889 kcal/mol
   Vibrational Enthalpy:        153.763 kcal/mol
   gas constant (RT):             0.592 kcal/mol
   Translational Entropy:        43.013  cal/mol.K
   Rotational Entropy:           33.883  cal/mol.K
   Vibrational Entropy:          48.750  cal/mol.K

   Total Enthalpy:              156.133 kcal/mol
   Total Entropy:               125.646  cal/mol.K

 Total job time:  38916.27s(wall), 39516.76s(cpu)
        *  Thank you very much for using Q-Chem.  Have a nice day.  *
