 Q-Chem 4.4, Q-Chem, Inc., Pleasanton, CA (2016)
 Q-Chem 4.4.1 for Intel X86 EM64T Linux

User input:
--------------------------------------------------------------
$molecule
-1 2
Ni -0.5465695350 1.5994385350 -0.2089247648
N -1.8727055427 2.8464458669 0.0702377185
N -1.9747099646 0.4272987421 -0.3388563453
N 0.8827476930 2.7719520196 0.0100860920
N 0.7501340409 0.3320418026 -0.3907056028
C -3.1107853054 2.3887151803 0.1192144393
H -1.7425737784 3.8369503502 0.2773036211
C -3.1732173852 0.9477493734 -0.1527696430
H -1.9299384417 -0.5716818699 -0.5390107251
C -4.4440106120 0.2856800021 -0.1742195608
C -5.5692228652 1.0246244873 0.0728544685
C -5.5065865663 2.4410588644 0.3508579937
C -4.3170647331 3.1169375302 0.3783708663
C 2.0533343638 2.2113059456 0.0249405327
H 0.9449820165 3.7925018634 0.1981733101
C 2.0201871718 0.7621324422 -0.1417885037
H 0.6067519332 -0.6755011648 -0.3761954330
C 3.1872992455 0.0506112133 0.0406613931
C 4.4175318167 0.7250944697 0.3950485141
C 4.5057981835 2.0707053346 0.5379589615
C 3.3453840471 2.9706221452 0.2163139321
H -4.2652162743 4.1823918964 0.5843455344
H -6.5429266886 0.5429304489 0.0646640069
H -6.4350426588 2.9723679150 0.5393511445
H -4.4893818359 -0.7800524879 -0.3800345912
H 3.1804411782 -1.0343167375 -0.0292745719
H 5.2963933557 0.1071831746 0.5618814513
H 5.4394920917 2.5549380710 0.8093647956
H 3.5714468532 3.4388801991 -0.7664009683
O 3.2263100269 3.9943772545 1.1826052359
O 2.2909681694 5.0189871326 0.6432266984
$end

$rem
method b3lyp
basis 6-31+g*
thresh 12
mem_total 4096
mem_static 512
unrestricted true
jobtype opt
geom_opt_tol_gradient 5
geom_opt_tol_displacement 10
geom_opt_tol_energy 5
solvent_method pcm
$end

$pcm
theory cpcm
method swig
solver inversion
heavypoints 194
hpoints 194
radii bondi
vdwscale 1.2
$end

$solvent
dielectric 78.39
$end

$van_der_waals
1
28  1.63
$end
--------------------------------------------------------------

   24   -2342.2276842929      6.45E-09 Convergence criterion met
 Total energy in the final basis set = -2342.2276842929
   23   -2342.2307410949      9.55E-09 Convergence criterion met
 Total energy in the final basis set = -2342.2307410949
   23   -2342.2302784360      7.87E-09 Convergence criterion met
 Total energy in the final basis set = -2342.2302784360
   22   -2342.2312505655      8.99E-09 Convergence criterion met
 Total energy in the final basis set = -2342.2312505655
   23   -2342.2312804455      9.50E-09 Convergence criterion met
 Total energy in the final basis set = -2342.2312804455
   23   -2342.2312883202      8.23E-09 Convergence criterion met
 Total energy in the final basis set = -2342.2312883202
   23   -2342.2312907815      8.92E-09 Convergence criterion met
 Total energy in the final basis set = -2342.2312907815
   23   -2342.2312936850      8.91E-09 Convergence criterion met
   24   -2342.2312950969      8.12E-09 Convergence criterion met
 Total energy in the final basis set = -2342.2312950969
   24   -2342.2312950555      8.27E-09 Convergence criterion met
 Total energy in the final basis set = -2342.2312950555
   24   -2342.2312950452      7.96E-09 Convergence criterion met
 Total energy in the final basis set = -2342.2312950452
   25   -2342.2312950551      4.99E-09 Convergence criterion met
 Total energy in the final basis set = -2342.2312950551
   25   -2342.2312950681      7.81E-09 Convergence criterion met
 Total energy in the final basis set = -2342.2312950681
   25   -2342.2312950780      7.86E-09 Convergence criterion met
 Total energy in the final basis set = -2342.2312950780

             Standard Nuclear Orientation (Angstroms)
    I     Atom           X                Y                Z
 ----------------------------------------------------------------
    1      Ni     -0.5482305661     1.5882840930    -0.2106967797
    2      N      -1.8670750751     2.8488877135     0.0622612570
    3      N      -1.9742513189     0.4186033400    -0.3235090267
    4      N       0.8936820816     2.7545931760    -0.0051326344
    5      N       0.7751523133     0.3124476420    -0.4216385255
    6      C      -3.1351899907     2.3809900771     0.1127352195
    7      H      -1.7383161647     3.8343269324     0.2818528002
    8      C      -3.1993847001     0.9588631649    -0.1398666428
    9      H      -1.9377912136    -0.5795552732    -0.5167793298
   10      C      -4.4589172935     0.3104189163    -0.1581288853
   11      C      -5.6128681350     1.0473452515     0.0814762017
   12      C      -5.5481082718     2.4402918268     0.3420845397
   13      C      -4.3276510008     3.1046138459     0.3587031479
   14      C       2.0672791257     2.1981273566     0.0088942300
   15      H       0.9534212616     3.7713638852     0.1858557306
   16      C       2.0397639418     0.7433908529    -0.1560855627
   17      H       0.6396627708    -0.6949205415    -0.3736298094
   18      C       3.2165039071     0.0418607614     0.0297794362
   19      C       4.4354838179     0.7335444433     0.3932530764
   20      C       4.5216578971     2.0804056966     0.5330082523
   21      C       3.3531144019     2.9732420196     0.2133696310
   22      H      -4.2744375300     4.1738834508     0.5537539420
   23      H      -6.5798492216     0.5501004054     0.0713176299
   24      H      -6.4655777156     2.9933016789     0.5279378279
   25      H      -4.5083882592    -0.7588607770    -0.3539561635
   26      H       3.2227622057    -1.0435058832    -0.0368855841
   27      H       5.3207624000     0.1237068815     0.5639679812
   28      H       5.4553672299     2.5692054622     0.7970896494
   29      H       3.5694091593     3.4832118753    -0.7486411134
   30      O       3.2156842207     3.9716725488     1.2119272491
   31      O       2.2955797219     5.0225291771     0.6949622552
 ----------------------------------------------------------------

   25   -2342.2312950856      7.89E-09 Convergence criterion met
 Total energy in the final basis set = -2342.2312950856
 Final energy is   -2342.23129508556
 **  OPTIMIZATION CONVERGED  **

                    Orbital Energies (a.u.)
 --------------------------------------------------------------

 Alpha MOs
 -- Occupied --
******* -35.831 -31.272 -31.263 -31.239 -19.172 -19.102 -14.351
-14.335 -14.333 -14.324 -10.246 -10.245 -10.228 -10.222 -10.221
-10.197 -10.191 -10.189 -10.189 -10.188 -10.187 -10.186  -4.031
 -2.641  -2.623  -2.585  -1.040  -0.943  -0.930  -0.874  -0.867
 -0.833  -0.823  -0.791  -0.731  -0.714  -0.700  -0.693  -0.623
 -0.616  -0.581  -0.576  -0.525  -0.519  -0.503  -0.493  -0.488
 -0.474  -0.465  -0.441  -0.437  -0.429  -0.424  -0.410  -0.408
 -0.403  -0.392  -0.388  -0.369  -0.361  -0.347  -0.340  -0.332
 -0.326  -0.324  -0.323  -0.319  -0.309  -0.293  -0.289  -0.263
 -0.248  -0.235  -0.216  -0.212  -0.194  -0.186  -0.165

 Beta MOs
 -- Occupied --
******* -35.826 -31.266 -31.261 -31.233 -19.172 -19.102 -14.352
-14.331 -14.329 -14.323 -10.245 -10.245 -10.229 -10.222 -10.221
-10.198 -10.189 -10.188 -10.187 -10.187 -10.187 -10.186  -4.020
 -2.626  -2.618  -2.569  -1.040  -0.943  -0.924  -0.873  -0.859
 -0.832  -0.819  -0.790  -0.729  -0.711  -0.696  -0.691  -0.622
 -0.614  -0.580  -0.574  -0.524  -0.517  -0.502  -0.492  -0.486
 -0.472  -0.464  -0.441  -0.436  -0.428  -0.423  -0.408  -0.402
 -0.396  -0.391  -0.387  -0.368  -0.359  -0.346  -0.337  -0.329
 -0.321  -0.319  -0.315  -0.308  -0.303  -0.288  -0.283  -0.242
 -0.231  -0.231  -0.215  -0.199  -0.187  -0.177

          Ground-State Mulliken Net Atomic Charges

     Atom                 Charge (a.u.)    Spin (a.u.)
  --------------------------------------------------------
      1 Ni                    0.348400       0.159703
      2 N                    -0.776495       0.242348
      3 N                    -0.815152       0.209471
      4 N                    -0.591850      -0.048140
      5 N                    -0.794794       0.011946
      6 C                     0.966309       0.019466
      7 H                     0.429835      -0.011300
      8 C                     1.033366       0.038389
      9 H                     0.430311      -0.009720
     10 C                    -0.961220       0.023292
     11 C                    -0.267261       0.078569
     12 C                    -0.274193       0.055644
     13 C                    -0.886677       0.045669
     14 C                     0.963921       0.015739
     15 H                     0.474692       0.001355
     16 C                     1.376932      -0.103045
     17 H                     0.414420      -0.001815
     18 C                    -1.395730       0.247959
     19 C                    -0.231409      -0.100233
     20 C                    -0.265137       0.171092
     21 C                    -0.810284      -0.034086
     22 H                     0.201139      -0.002903
     23 H                     0.197424      -0.004406
     24 H                     0.197216      -0.003375
     25 H                     0.200427      -0.002008
     26 H                     0.206027      -0.010166
     27 H                     0.200824       0.003173
     28 H                     0.204966      -0.007701
     29 H                     0.226900       0.010100
     30 O                    -0.231194       0.003538
     31 O                    -0.771714       0.001445
  --------------------------------------------------------
  Sum of atomic charges =    -1.000000

                    Cartesian Multipole Moments
 -----------------------------------------------------------------
    Charge (ESU x 10^10)
                -4.8032
    Dipole Moment (Debye)
         X      -6.9396      Y     -21.2855      Z      -3.7135
       Tot      22.6940
    Quadrupole Moments (Debye-Ang)
        XX    -149.5417     XY     -45.4362     YY    -207.5959
        XZ     -11.9411     YZ     -16.7745     ZZ    -135.7004

 Total job time:  12712.48s(wall), 43710.73s(cpu)
        *  Thank you very much for using Q-Chem.  Have a nice day.  *
