 Q-Chem 4.4, Q-Chem, Inc., Pleasanton, CA (2016)
 Q-Chem 4.4.1 for Intel X86 EM64T Linux

User input:
--------------------------------------------------------------
$molecule
0 1
Ni        -0.52166        1.61000       -0.00581
N         -1.89004        2.89602       -0.00580
N         -1.95207        0.40229       -0.01226
N          0.80863        2.87635        0.00213
N          0.75486        0.29861       -0.01300
C         -3.18534        2.36300       -0.03296
H         -1.75611        3.91309       -0.12455
C         -3.21824        0.99735        0.02892
H         -1.86456       -0.61984        0.10921
C         -4.42936        0.30196        0.09018
C         -5.62340        1.03403        0.05769
C         -5.58994        2.44186       -0.03523
C         -4.36239        3.11548       -0.08090
C          2.08616        2.30517        0.05542
H          0.71730        3.86871        0.12824
C          2.05103        0.83452       -0.06189
H          0.61032       -0.69457       -0.14175
C          3.18382        0.10922       -0.09721
C          4.47673        0.81617       -0.06134
C          4.51064        2.15265        0.04149
C          3.27512        2.95596        0.32091
H         -4.34749        4.20958       -0.14645
H         -6.57250        0.52145        0.09657
H         -6.51361        2.99964       -0.06386
H         -4.46653       -0.79158        0.15618
H          3.20218       -0.98131       -0.15798
H          5.38536        0.23925       -0.08428
H          5.44404        2.69648        0.09378
H          3.43742        3.84639       -0.38183
O          3.20607        3.12314        1.84650
O          2.94281        4.51130        2.05916
$end

$rem
method b3lyp
basis 6-31+g*
thresh 12
mem_total 4096
mem_static 512
jobtype opt
geom_opt_tol_gradient 5
geom_opt_tol_displacement 10
geom_opt_tol_energy 5
solvent_method pcm
$end

$pcm
theory cpcm
method swig
solver inversion
heavypoints 194
hpoints 194
radii bondi
vdwscale 1.2
$end

$solvent
dielectric 78.39
$end

$van_der_waals
1
28  1.63
$end
--------------------------------------------------------------

   23   -2342.0086636912      8.49E-09 Convergence criterion met
 Total energy in the final basis set = -2342.0086636912
   21   -2342.0451723782      5.42E-09 Convergence criterion met
 Total energy in the final basis set = -2342.0451723782
   21   -2342.0633137793      9.58E-09 Convergence criterion met
 Total energy in the final basis set = -2342.0633137793
   21   -2342.0690129679      7.38E-09 Convergence criterion met
 Total energy in the final basis set = -2342.0690129679
   22   -2342.0721811159      5.87E-09 Convergence criterion met
 Total energy in the final basis set = -2342.0721811159
   22   -2342.0739042090      7.17E-09 Convergence criterion met
 Total energy in the final basis set = -2342.0739042090
   21   -2342.0745591073      7.20E-09 Convergence criterion met
 Total energy in the final basis set = -2342.0745591073
   22   -2342.0751525123      7.82E-09 Convergence criterion met
   31   -2342.0781330048      9.11E-09 Convergence criterion met
 Total energy in the final basis set = -2342.0781330048
   31   -2342.0781339813      8.66E-09 Convergence criterion met
 Total energy in the final basis set = -2342.0781339813
   31   -2342.0781348865      9.07E-09 Convergence criterion met
 Total energy in the final basis set = -2342.0781348865
   31   -2342.0781355239      8.25E-09 Convergence criterion met
 Total energy in the final basis set = -2342.0781355239
   31   -2342.0781357358      9.16E-09 Convergence criterion met
 Total energy in the final basis set = -2342.0781357358
   33   -2342.0781357785      8.51E-09 Convergence criterion met
 Total energy in the final basis set = -2342.0781357785

             Standard Nuclear Orientation (Angstroms)
    I     Atom           X                Y                Z
 ----------------------------------------------------------------
    1      Ni     -0.5465695350     1.5994385350    -0.2089247648
    2      N      -1.8727055427     2.8464458669     0.0702377185
    3      N      -1.9747099646     0.4272987421    -0.3388563453
    4      N       0.8827476930     2.7719520196     0.0100860920
    5      N       0.7501340409     0.3320418026    -0.3907056028
    6      C      -3.1107853054     2.3887151803     0.1192144393
    7      H      -1.7425737784     3.8369503502     0.2773036211
    8      C      -3.1732173852     0.9477493734    -0.1527696430
    9      H      -1.9299384417    -0.5716818699    -0.5390107251
   10      C      -4.4440106120     0.2856800021    -0.1742195608
   11      C      -5.5692228652     1.0246244873     0.0728544685
   12      C      -5.5065865663     2.4410588644     0.3508579937
   13      C      -4.3170647331     3.1169375302     0.3783708663
   14      C       2.0533343638     2.2113059456     0.0249405327
   15      H       0.9449820165     3.7925018634     0.1981733101
   16      C       2.0201871718     0.7621324422    -0.1417885037
   17      H       0.6067519332    -0.6755011648    -0.3761954330
   18      C       3.1872992455     0.0506112133     0.0406613931
   19      C       4.4175318167     0.7250944697     0.3950485141
   20      C       4.5057981835     2.0707053346     0.5379589615
   21      C       3.3453840471     2.9706221452     0.2163139321
   22      H      -4.2652162743     4.1823918964     0.5843455344
   23      H      -6.5429266886     0.5429304489     0.0646640069
   24      H      -6.4350426588     2.9723679150     0.5393511445
   25      H      -4.4893818359    -0.7800524879    -0.3800345912
   26      H       3.1804411782    -1.0343167375    -0.0292745719
   27      H       5.2963933557     0.1071831746     0.5618814513
   28      H       5.4394920917     2.5549380710     0.8093647956
   29      H       3.5714468532     3.4388801991    -0.7664009683
   30      O       3.2263100269     3.9943772545     1.1826052359
   31      O       2.2909681694     5.0189871326     0.6432266984
 ----------------------------------------------------------------

   33   -2342.0781357859      8.45E-09 Convergence criterion met
 Total energy in the final basis set = -2342.0781357859
 Final energy is   -2342.07813578590
 **  OPTIMIZATION CONVERGED  **

                    Orbital Energies (a.u.)
 --------------------------------------------------------------

 Alpha MOs
 -- Occupied --
******* -35.862 -31.304 -31.295 -31.270 -19.180 -19.109 -14.381
-14.379 -14.365 -14.348 -10.266 -10.265 -10.260 -10.256 -10.244
-10.222 -10.221 -10.217 -10.216 -10.216 -10.210 -10.208  -4.058
 -2.668  -2.652  -2.610  -1.050  -0.977  -0.958  -0.914  -0.891
 -0.854  -0.846  -0.803  -0.764  -0.730  -0.723  -0.708  -0.649
 -0.637  -0.609  -0.594  -0.552  -0.536  -0.532  -0.520  -0.512
 -0.496  -0.478  -0.462  -0.458  -0.452  -0.446  -0.439  -0.438
 -0.426  -0.411  -0.405  -0.392  -0.383  -0.370  -0.363  -0.357
 -0.346  -0.345  -0.342  -0.333  -0.324  -0.320  -0.306  -0.274
 -0.268  -0.263  -0.239  -0.221  -0.201  -0.193

          Ground-State Mulliken Net Atomic Charges

     Atom                 Charge (a.u.)
  ----------------------------------------
      1 Ni                    0.511963
      2 N                    -0.635178
      3 N                    -0.652989
      4 N                    -0.582267
      5 N                    -0.768674
      6 C                     2.015176
      7 H                     0.468121
      8 C                     1.981288
      9 H                     0.469276
     10 C                    -1.859908
     11 C                    -0.348890
     12 C                    -0.361633
     13 C                    -1.768596
     14 C                     1.003126
     15 H                     0.482887
     16 C                     1.455700
     17 H                     0.437278
     18 C                    -1.453063
     19 C                    -0.242551
     20 C                    -0.209354
     21 C                    -0.814191
     22 H                     0.237337
     23 H                     0.228769
     24 H                     0.228388
     25 H                     0.236785
     26 H                     0.228204
     27 H                     0.216584
     28 H                     0.222923
     29 H                     0.246556
     30 O                    -0.223650
     31 O                    -0.749419
  ----------------------------------------
  Sum of atomic charges =     0.000000

                    Cartesian Multipole Moments
 -----------------------------------------------------------------
    Charge (ESU x 10^10)
                 0.0000
    Dipole Moment (Debye)
         X     -14.2774      Y     -13.7910      Z      -3.4664
       Tot      20.1507
    Quadrupole Moments (Debye-Ang)
        XX     -82.0842     XY     -58.7558     YY    -182.0184
        XZ     -11.1185     YZ     -14.0340     ZZ    -128.8223

 Total job time:  28807.69s(wall), 53744.32s(cpu)
        *  Thank you very much for using Q-Chem.  Have a nice day.  *
